{
  "H": {
    "name": "Hydrogen",
    "atomic_number": 1,
    "atomic_mass": 1.008,
    "category": "nonmetal",
    "melting_point": 14.01,
    "boiling_point": 20.28
  },
  "He": {
    "name": "Helium",
    "atomic_number": 2,
    "atomic_mass": 4.0026,
    "category": "noble gas",
    "melting_point": null,
    "boiling_point": 4.22
  },
  "C": {
    "name": "Carbon",
    "atomic_number": 6,
    "atomic_mass": 12.011,
    "category": "nonmetal",
    "melting_point": 3823,
    "boiling_point": 4098
  },
  "N": {
    "name": "Nitrogen",
    "atomic_number": 7,
    "atomic_mass": 14.007,
    "category": "nonmetal",
    "melting_point": 63.15,
    "boiling_point": 77.36
  },
  "O": {
    "name": "Oxygen",
    "atomic_number": 8,
    "atomic_mass": 15.999,
    "category": "nonmetal",
    "melting_point": 54.36,
    "boiling_point": 90.2
  },
  "Na": {
    "name": "Sodium",
    "atomic_number": 11,
    "atomic_mass": 22.99,
    "category": "alkali metal",
    "melting_point": 370.87,
    "boiling_point": 1156
  },
  "Cl": {
    "name": "Chlorine",
    "atomic_number": 17,
    "atomic_mass": 35.45,
    "category": "halogen",
    "melting_point": 171.6,
    "boiling_point": 239.11
  },
  "Fe": {
    "name": "Iron",
    "atomic_number": 26,
    "atomic_mass": 55.845,
    "category": "transition metal",
    "melting_point": 1811,
    "boiling_point": 3134
  }
}